LAMMPS Description

         976  atoms
         976  ellipsoids
         0  bonds
         0     angles
         0     dihedrals
         0     impropers

         2 atom types
         0 bond types
         0 angle types
         0 dihedral types
-18.7791827738091612 18.7791827738091612 xlo xhi
-18.7791827738091612 18.7791827738091612 ylo yhi
-0.7 0.7 zlo zhi

Masses

         1 1.000000
         2 1.000000
Atoms

1 1 -13.4920001071401909 2.3315115473608192 0.0 1 0.696013 1
2 1 -2.2287483460973374 9.0632458636728224 0.0 1 0.696013 1
3 1 -5.5221194107267886 -17.4701617519796919 0.0 1 0.696013 1
4 1 -13.0717690668595505 15.1454659382117853 0.0 1 0.696013 1
5 1 15.3833094635437782 0.7756984531075635 0.0 1 0.696013 1
6 1 12.6637939279218088 15.0633283963869768 0.0 1 0.696013 1
7 1 12.5993839847608555 3.2249115765341325 0.0 1 0.696013 1
8 1 -0.1126243393176315 -8.1790628878592404 0.0 1 0.696013 1
9 1 -4.0692155871874043 -16.5224970292211957 0.0 1 0.696013 1
10 1 4.9635634595695457 9.8688001051642065 0.0 1 0.696013 1
11 1 -16.0295578760726265 -8.6064541022039247 0.0 1 0.696013 1
12 1 16.7446370905900608 6.9669730627768089 0.0 1 0.696013 1
13 1 1.3127712841259060 -6.9935281833855125 0.0 1 0.696013 1
14 1 -2.0741595957482546 2.5059890084696894 0.0 1 0.696013 1
15 1 -14.5740035925958669 -15.3319015635984250 0.0 1 0.696013 1
16 1 -3.5463318347818609 7.1669466618044817 0.0 1 0.696013 1
17 1 -5.6036903398012310 14.8572692717313224 0.0 1 0.696013 1
18 1 2.5237074902086936 3.0642379816918774 0.0 1 0.696013 1
19 1 -8.6650562047669943 0.5035506779824503 0.0 1 0.696013 1
20 1 17.9467354041328520 -1.7240979152740326 0.0 1 0.696013 1
21 1 -10.1214249745690310 -1.2494935518189478 0.0 1 0.696013 1
22 1 -18.1296995311964402 2.2439017272977990 0.0 1 0.696013 1
23 1 -7.5746230797554457 1.3815833610519148 0.0 1 0.696013 1
24 1 -13.5467914400636591 11.6532098616146769 0.0 1 0.696013 1
25 1 11.5044138424014140 -13.0377337685477066 0.0 1 0.696013 1
26 1 -6.1496080153675141 16.1464375817490158 0.0 1 0.696013 1
27 1 -15.4810643792912952 -14.2654916193752985 0.0 1 0.696013 1
28 1 15.8849725114996776 10.9088079170785459 0.0 1 0.696013 1
29 1 3.6884246934247620 -9.8054598274655032 0.0 1 0.696013 1
30 1 -1.4733904813413297 -15.1077431697610081 0.0 1 0.696013 1
31 1 -12.3070506835642597 11.0027984700670007 0.0 1 0.696013 1
32 1 -14.4612519150725074 15.3167346811332763 0.0 1 0.696013 1
33 1 -4.1450847671570656 2.6204675611126484 0.0 1 0.696013 1
34 1 -0.4353012231190205 0.7187768701565463 0.0 1 0.696013 1
35 1 15.5017104217310493 7.6112779214592177 0.0 1 0.696013 1
36 1 -14.7116442624301502 -9.2769011825959886 0.0 1 0.696013 1
37 1 -8.1916843173038103 6.2610136881756668 0.0 1 0.696013 1
38 1 -16.9896921189211803 6.6504427542718769 0.0 1 0.696013 1
39 1 5.9413899591574113 -6.2765496879135805 0.0 1 0.696013 1
40 1 14.1254279435039667 -7.1273409009318565 0.0 1 0.696013 1
41 1 -4.4877771083161608 3.9778770729194686 0.0 1 0.696013 1
42 1 -2.3141150681068519 15.5776544190582342 0.0 1 0.696013 1
43 1 -12.0799218107980710 -12.7084648745197573 0.0 1 0.696013 1
44 1 10.8984124909682549 5.5187030586434940 0.0 1 0.696013 1
45 1 15.1692646941577198 3.7047414481635972 0.0 1 0.696013 1
46 1 11.9000844860559738 17.7249033703432879 0.0 1 0.696013 1
47 1 -5.4180349921938902 13.4696403167101959 0.0 1 0.696013 1
48 1 14.7612764419890663 -2.6080662275712241 0.0 1 0.696013 1
49 1 1.2709470225781372 -8.3928993594087320 0.0 1 0.696013 1
50 1 11.9901805830560395 -16.2630954619741921 0.0 1 0.696013 1
51 1 -17.5791472580593755 -17.8707538443143967 0.0 1 0.696013 1
52 1 4.8008221701944320 17.9932116689040065 0.0 1 0.696013 1
53 1 -16.9997485384160143 -16.5353894981321332 0.0 1 0.696013 1
54 1 -0.9988981612648883 9.7321739055377936 0.0 1 0.696013 1
55 1 9.6563891436012561 -16.2571226001716482 0.0 1 0.696013 1
56 1 4.7200526841231074 1.3839116609100235 0.0 1 0.696013 1
57 1 -12.1927330956638205 -15.3826343927188898 0.0 1 0.696013 1
58 1 1.2624355865114587 -9.7928701173904251 0.0 1 0.696013 1
59 1 -15.8756929684610224 1.9497886313202655 0.0 1 0.696013 1
60 1 -7.8987666421770868 14.6716507581949926 0.0 1 0.696013 1
61 1 5.4261416941075087 0.1750145590831016 0.0 1 0.696013 1
62 1 -7.8641021074359827 -5.0463306210385275 0.0 1 0.696013 1
63 1 -13.6243720256040444 -10.3766528850360746 0.0 1 0.696013 1
64 1 -0.1119943585737395 5.9253964455452159 0.0 1 0.696013 1
65 1 11.3063899519691766 0.1045082287137243 0.0 1 0.696013 1
66 1 13.6014073779770701 14.0236776237375249 0.0 1 0.696013 1
67 1 -4.9213422886056719 -6.4100953668597489 0.0 1 0.696013 1
68 1 3.4838267143401103 -17.6315915220766435 0.0 1 0.696013 1
69 1 -10.7932159646100629 17.5873768971787854 0.0 1 0.696013 1
70 1 -7.3594381482192830 -0.0017778180013529 0.0 1 0.696013 1
71 1 5.0730657593119775 -5.1783658705943587 0.0 1 0.696013 1
72 1 7.3126055875268525 -4.5256997392695650 0.0 1 0.696013 1
73 1 -16.6286625667887336 12.1724837417230152 0.0 1 0.696013 1
74 1 -14.9224021248262364 9.3982810737577118 0.0 1 0.696013 1
75 1 -16.3419137504329477 -2.9570698453714819 0.0 1 0.696013 1
76 1 -11.9947466520334647 6.7021059665242220 0.0 1 0.696013 1
77 1 3.6201632118090106 -13.5665629305717754 0.0 1 0.696013 1
78 1 8.4379374383602030 -8.3091426854407775 0.0 1 0.696013 1
79 1 16.4008695787609504 -9.7387571969245315 0.0 1 0.696013 1
80 1 5.0324596655464173 -3.7789575243333573 0.0 1 0.696013 1
81 1 -1.6491164517688115 18.0792449688718690 0.0 1 0.696013 1
82 1 6.9224377771348014 -3.1811705162687356 0.0 1 0.696013 1
83 1 -7.8245693336727893 -16.2823888264931931 0.0 1 0.696013 1
84 1 -17.1998612849989101 -4.2619837135387622 0.0 1 0.696013 1
85 1 -3.1103466580833854 -6.0372079633838878 0.0 1 0.696013 1
86 1 -1.4749241294176225 14.4570509113845240 0.0 1 0.696013 1
87 1 -6.2139962373291828 -2.9752960166928650 0.0 1 0.696013 1
88 1 5.6279594594893547 8.6364954373096943 0.0 1 0.696013 1
89 1 10.5440996808063723 -6.4897286610527214 0.0 1 0.696013 1
90 1 -17.4376185353095821 -5.6416463196811204 0.0 1 0.696013 1
91 1 -6.4298942336621847 -16.4043596075738556 0.0 1 0.696013 1
92 1 -0.3568391955000349 8.4880939627731316 0.0 1 0.696013 1
93 1 -2.1306614776975574 3.9048441933418649 0.0 1 0.696013 1
94 1 -16.3218793969844285 9.3600603570353051 0.0 1 0.696013 1
95 1 6.6922386030848502 -14.7877072995132242 0.0 1 0.696013 1
96 1 7.6970171050894143 -15.7625965717483609 0.0 1 0.696013 1
97 1 12.3451066797286302 9.0974619441197166 0.0 1 0.696013 1
98 1 12.9043627960189831 -13.0495655972621076 0.0 1 0.696013 1
99 1 -11.7704765371667825 -10.7611836198941049 0.0 1 0.696013 1
100 1 2.2586490355102407 5.6168628569945707 0.0 1 0.696013 1
101 1 -18.1933709959739183 -14.6953192468284399 0.0 1 0.696013 1
102 1 12.3656412049870674 -3.1117340606050954 0.0 1 0.696013 1
103 1 15.6035044124072524 -1.4897467047371555 0.0 1 0.696013 1
104 1 5.5094220231361666 5.1652056947904086 0.0 1 0.696013 1
105 1 13.2217024498091806 1.3308002528922491 0.0 1 0.696013 1
106 1 8.9138439681193038 -15.0702708384783488 0.0 1 0.696013 1
107 1 7.3115428281009081 -5.9256959848887458 0.0 1 0.696013 1
108 1 7.0403119451612675 -8.2277103746288880 0.0 1 0.696013 1
109 1 -9.6035733074701479 1.5966470613840653 0.0 1 0.696013 1
110 1 -10.6534784229260762 10.9440251071116670 0.0 1 0.696013 1
111 1 2.2312300640444271 -13.7422357155875847 0.0 1 0.696013 1
112 1 -7.6262698231391663 7.5417512178131494 0.0 1 0.696013 1
113 1 -17.3255823972993888 -12.1389967483063987 0.0 1 0.696013 1
114 1 6.1078147591902692 15.1360242018494962 0.0 1 0.696013 1
115 1 -11.5223682437502450 9.8433736770742097 0.0 1 0.696013 1
116 1 -0.1003315671083357 16.8761431889029261 0.0 1 0.696013 1
117 1 6.7972553146460646 0.4579305490437982 0.0 1 0.696013 1
118 1 -18.2087430921542719 17.8019864991410479 0.0 1 0.696013 1
119 1 14.5928842728891741 -11.3587109880225707 0.0 1 0.696013 1
120 1 11.9232786757697262 -6.2491888150940813 0.0 1 0.696013 1
121 1 -8.7717945219712199 -3.9804541369403887 0.0 1 0.696013 1
122 1 0.4900408651592626 15.6067122232340427 0.0 1 0.696013 1
123 1 -12.3905160846498053 -16.7685903827571643 0.0 1 0.696013 1
124 1 14.9095353797011931 -9.9896286226659132 0.0 1 0.696013 1
125 1 -5.3902534531484481 10.8358373097278573 0.0 1 0.696013 1
126 1 -3.6224541928792933 -2.0796136661431590 0.0 1 0.696013 1
127 1 -12.1158355238286628 2.0742854587545545 0.0 1 0.696013 1
128 1 -10.1287665150661663 -9.7458596217842288 0.0 1 0.696013 1
129 1 8.1166827344156918 -12.9350322826512869 0.0 1 0.696013 1
130 1 3.2148819412930818 -11.1229394847324627 0.0 1 0.696013 1
131 1 14.7626203985392657 6.4222698361773851 0.0 1 0.696013 1
132 1 -14.9927030839135575 -10.6727226696710016 0.0 1 0.696013 1
133 1 16.3093001284729020 -0.2806794938975546 0.0 1 0.696013 1
134 1 -8.1371437956129338 9.7345260574499619 0.0 1 0.696013 1
135 1 -7.2723012839175718 -6.3150952078769551 0.0 1 0.696013 1
136 1 -5.9505224650981274 4.2016031717467284 0.0 1 0.696013 1
137 1 -0.9240464694571962 15.7441137671270113 0.0 1 0.696013 1
138 1 -14.4988959549173604 13.9172411769908457 0.0 1 0.696013 1
139 1 11.0047494763200611 -14.3455290709677801 0.0 1 0.696013 1
140 1 1.0607666338642228 -17.7251997893980082 0.0 1 0.696013 1
141 1 13.0772667099762732 -8.0554281267209706 0.0 1 0.696013 1
142 1 7.1804295825186264 -17.0637970613515257 0.0 1 0.696013 1
143 1 -4.8169581634423944 -1.3494434168554568 0.0 1 0.696013 1
144 1 -0.4050992644796901 -17.6761428575091699 0.0 1 0.696013 1
145 1 -3.4550084020476901 -11.8866347460497774 0.0 1 0.696013 1
146 1 10.3148513577521364 1.0991717066055300 0.0 1 0.696013 1
147 1 17.9540442625139924 -12.9012570120881662 0.0 1 0.696013 1
148 1 -17.2735325376914872 -1.9120411784374534 0.0 1 0.696013 1
149 1 -8.9509473726989999 -15.4509726864264447 0.0 1 0.696013 1
150 1 8.1454439598740063 0.8352671201000269 0.0 1 0.696013 1
151 1 18.6482850442743064 -0.4685762476181102 0.0 1 0.696013 1
152 1 6.3361788979731077 -0.8888562742904331 0.0 1 0.696013 1
153 1 -12.4432013380029680 12.5146510873296659 0.0 1 0.696013 1
154 1 -9.0276604940755902 15.4996558603951708 0.0 1 0.696013 1
155 1 -11.9922720414179942 -5.2749849264864173 0.0 1 0.696013 1
156 1 9.2335833457675989 -3.7999792243117994 0.0 1 0.696013 1
157 1 3.1589604621323537 7.7739620664418192 0.0 1 0.696013 1
158 1 -6.8123740187386836 -8.8622475848708433 0.0 1 0.696013 1
159 1 -2.7688894407808919 -14.5770080633754713 0.0 1 0.696013 1
160 1 11.0151778877981510 -5.1713669010753680 0.0 1 0.696013 1
161 1 -9.3250522665629081 -13.1372617559141904 0.0 1 0.696013 1
162 1 13.2439542797561725 -5.6969096963663608 0.0 1 0.696013 1
163 1 17.8100537637917498 13.7327159226935347 0.0 1 0.696013 1
164 1 4.2285546008665076 8.6772658793292976 0.0 1 0.696013 1
165 1 -4.3173508131847438 -4.2833820635743045 0.0 1 0.696013 1
166 1 -6.2690049001025603 0.8762587092126949 0.0 1 0.696013 1
167 1 5.9939523110959261 -13.5742872643745205 0.0 1 0.696013 1
168 1 2.6725609415984768 -12.4136244924417873 0.0 1 0.696013 1
169 1 2.5268979298514682 -7.6905844832295607 0.0 1 0.696013 1
170 1 -5.4862728870934578 -13.7895000323653214 0.0 1 0.696013 1
171 1 7.4458615470837124 7.2699532810904834 0.0 1 0.696013 1
172 1 17.9999139975010571 -14.3005010114434157 0.0 1 0.696013 1
173 1 17.6831664411269109 -7.3299582888265045 0.0 1 0.696013 1
174 1 -4.9086693615390580 7.4894865833863964 0.0 1 0.696013 1
175 1 10.2201381464912373 -12.1497946506704846 0.0 1 0.696013 1
176 1 -11.7581049949410374 15.6294893244232274 0.0 1 0.696013 1
177 1 -13.4206297969465069 4.6360666518439979 0.0 1 0.696013 1
178 1 13.3562042478018377 5.4170030212795348 0.0 1 0.696013 1
179 1 3.5231575587628963 16.0737853088255918 0.0 1 0.696013 1
180 1 -18.3867021297066309 14.0582980087410121 0.0 1 0.696013 1
181 1 -18.6060917065901243 -16.9192460341260293 0.0 1 0.696013 1
182 1 -7.5677991671232459 -7.6835498323919529 0.0 1 0.696013 1
183 1 12.0854651785121323 -9.0435145230530907 0.0 1 0.696013 1
184 1 -6.0113015379592420 17.5395885866308845 0.0 1 0.696013 1
185 1 -16.7873874073024929 10.7323078064247248 0.0 1 0.696013 1
186 1 -17.9197936058987182 12.7284924395088890 0.0 1 0.696013 1
187 1 -12.1447710573637639 17.9524737141200710 0.0 1 0.696013 1
188 1 -0.5553184099109260 -4.9293675750726029 0.0 1 0.696013 1
189 1 -9.5851821753200657 -6.6565140694927756 0.0 1 0.696013 1
190 1 -4.5749072354889098 -12.7267654224312032 0.0 1 0.696013 1
191 1 4.1095041268566534 5.1800411628720262 0.0 1 0.696013 1
192 1 8.3707873883581119 17.7871974730996776 0.0 1 0.696013 1
193 1 9.5170924100301182 2.9709436516834531 0.0 1 0.696013 1
194 1 -16.0267235794677738 -11.6165394518961289 0.0 1 0.696013 1
195 1 -1.5115830591692261 5.9592086094035208 0.0 1 0.696013 1
196 1 16.8885810583229983 -11.0510555865089959 0.0 1 0.696013 1
197 1 10.3357803890663984 12.2790353818669953 0.0 1 0.696013 1
198 1 11.9054903722588730 -18.4334752550124890 0.0 1 0.696013 1
199 1 2.3150621280129204 16.7812415693063279 0.0 1 0.696013 1
200 1 -17.1084656928310181 1.2862604250083560 0.0 1 0.696013 1
201 1 -14.8584073932663259 12.1427530223013314 0.0 1 0.696013 1
202 1 -17.0118508509567548 13.7941542939875177 0.0 1 0.696013 1
203 1 0.7909356409822316 0.0432461685585376 0.0 1 0.696013 1
204 1 7.2311895331131355 10.9367952043184058 0.0 1 0.696013 1
205 1 15.1435861431565062 16.2093534689928482 0.0 1 0.696013 1
206 1 14.3304116131677883 -8.6796277375139397 0.0 1 0.696013 1
207 1 18.0598402353883145 8.7986753091299885 0.0 1 0.696013 1
208 1 -6.5051853519298515 -12.8293896053195535 0.0 1 0.696013 1
209 1 -18.1550173398644112 4.5520981654602775 0.0 1 0.696013 1
210 1 5.7294141431414136 -16.8810050946320231 0.0 1 0.696013 1
211 1 -15.9838444267073996 -15.5720940828608931 0.0 1 0.696013 1
212 1 0.7628413378636887 1.4429641602924901 0.0 1 0.696013 1
213 1 -8.5187709839539316 -11.9927562912817809 0.0 1 0.696013 1
214 1 6.9671501270163487 1.8475830218554761 0.0 1 0.696013 1
215 1 7.9998013439844851 13.2780140976337719 0.0 1 0.696013 1
216 1 -7.2721509223119387 11.9552771751424469 0.0 1 0.696013 1
217 1 -6.8272109947324235 -14.1918449136672074 0.0 1 0.696013 1
218 1 6.9838541584794216 12.3147699605988041 0.0 1 0.696013 1
219 1 2.2993186313969032 -18.3778743887037024 0.0 1 0.696013 1
220 1 14.3472003876793988 10.8586739561341101 0.0 1 0.696013 1
221 1 -0.0735302592811612 -15.0879885010929318 0.0 1 0.696013 1
222 1 -1.4104273828785612 -11.4357509711376490 0.0 1 0.696013 1
223 1 -13.2877169586096446 -7.2913604868310040 0.0 1 0.696013 1
224 1 4.1795309330434804 3.7324586382997231 0.0 1 0.696013 1
225 1 -17.0721965743607527 16.9845158466378336 0.0 1 0.696013 1
226 1 15.3785719276896700 -7.7515357063686023 0.0 1 0.696013 1
227 1 -9.2410233832853166 -5.2994767204311248 0.0 1 0.696013 1
228 1 -2.6823510424947061 5.1915570898125898 0.0 1 0.696013 1
229 1 17.2716290017640439 11.1016355446889392 0.0 1 0.696013 1
230 1 -11.0913525689760668 -16.2469008078783546 0.0 1 0.696013 1
231 1 5.3276651645630553 13.9735439956108305 0.0 1 0.696013 1
232 1 2.7414916400830904 11.5110292473177189 0.0 1 0.696013 1
233 1 5.7585730077894235 -7.6645604211455804 0.0 1 0.696013 1
234 1 9.6151859873656313 -5.1679009622446426 0.0 1 0.696013 1
235 1 14.6998181548335030 5.0236855762334809 0.0 1 0.696013 1
236 1 -13.2168793214016080 -3.8456010821124820 0.0 1 0.696013 1
237 1 14.0450692716197150 18.6980526502201307 0.0 1 0.696013 1
238 1 -10.4072845966894967 15.2616881919913663 0.0 1 0.696013 1
239 1 -9.7499127666857728 13.2366432028193106 0.0 1 0.696013 1
240 1 -6.3922267262932229 -11.1865201882292045 0.0 1 0.696013 1
241 1 -2.4975017437031215 16.9655891886178090 0.0 1 0.696013 1
242 1 -9.0270415788412510 5.1375516397747685 0.0 1 0.696013 1
243 1 -15.9174450480577185 0.5504166350643399 0.0 1 0.696013 1
244 1 17.8805293425295702 -5.0022020441121375 0.0 1 0.696013 1
245 1 6.3632304095319778 9.8383215574820593 0.0 1 0.696013 1
246 1 -4.4973768300360391 15.7152087931426951 0.0 1 0.696013 1
247 1 1.9975075488074459 6.9922875247516902 0.0 1 0.696013 1
248 1 8.0779548492650886 15.6256646105900820 0.0 1 0.696013 1
249 1 11.7281041889517681 12.4254302228564093 0.0 1 0.696013 1
250 1 17.1528232871870578 12.4965799825464376 0.0 1 0.696013 1
251 1 3.7551857694737918 2.3983185093816997 0.0 1 0.696013 1
252 1 18.6995867722750297 11.5392708467785088 0.0 1 0.696013 1
253 1 -13.9295820121713341 -16.5747661347129061 0.0 1 0.696013 1
254 1 -15.6215995963869076 -4.1575431070875934 0.0 1 0.696013 1
255 1 -7.0711429492989781 8.8269827932736522 0.0 1 0.696013 1
256 1 -5.8200588915379630 6.4267716708695799 0.0 1 0.696013 1
257 1 -4.1987492106482573 -14.3392987164164936 0.0 1 0.696013 1
258 1 15.8987688291133313 15.0305061216703439 0.0 1 0.696013 1
259 1 12.4816708885327259 16.4514276134654160 0.0 1 0.696013 1
260 1 -2.7808475002740045 -7.4945886257007563 0.0 1 0.696013 1
261 1 0.4895858837303713 -5.8611181364796767 0.0 1 0.696013 1
262 1 1.1186590511128633 -15.8219386413546594 0.0 1 0.696013 1
263 1 -11.2573953269365088 0.9683589398296187 0.0 1 0.696013 1
264 1 -11.5176979686679566 -3.9578809290900381 0.0 1 0.696013 1
265 1 2.6342593839835384 -2.9352196217244058 0.0 1 0.696013 1
266 1 -1.9832771884861520 11.9209963838954938 0.0 1 0.696013 1
267 1 -17.4076691287882284 -13.5365859485543893 0.0 1 0.696013 1
268 1 -11.7957494816592678 14.2300001311349256 0.0 1 0.696013 1
269 1 -7.5223647274825449 2.7806028796415108 0.0 1 0.696013 1
270 1 -0.7388066844163094 2.0854815749452373 0.0 1 0.696013 1
271 1 7.9297585102010695 -11.5475736810421648 0.0 1 0.696013 1
272 1 16.3929151117124654 -6.7866016267888263 0.0 1 0.696013 1
273 1 2.9480465223634775 4.3983735142645548 0.0 1 0.696013 1
274 1 -2.9225429993721019 -4.4038019582295487 0.0 1 0.696013 1
275 1 13.8898576329227890 2.5610707015539549 0.0 1 0.696013 1
276 1 -5.3777842251185994 1.9559450978330035 0.0 1 0.696013 1
277 1 -13.3663497733884071 6.9826495843627496 0.0 1 0.696013 1
278 1 4.8223107666214320 6.3849904388588072 0.0 1 0.696013 1
279 1 -4.1952809790806960 -17.9168090147368240 0.0 1 0.696013 1
280 1 -16.5451074280447052 7.9779741820044956 0.0 1 0.696013 1
281 1 17.7423764654769940 0.5988110620195959 0.0 1 0.696013 1
282 1 -4.3075362938970621 14.3281401303564149 0.0 1 0.696013 1
283 1 -2.6329031108152687 -10.7534385081327741 0.0 1 0.696013 1
284 1 10.9366258620680430 -7.9020625346321909 0.0 1 0.696013 1
285 1 0.8857685280919094 7.8431846630674764 0.0 1 0.696013 1
286 1 -0.7825064720451493 7.1543805456566476 0.0 1 0.696013 1
287 1 3.9422088701900719 13.7722868448024389 0.0 1 0.696013 1
288 1 14.7904883967100726 8.8171621734346424 0.0 1 0.696013 1
289 1 -8.5667035760734116 12.4883084463917235 0.0 1 0.696013 1
290 1 -13.8380753148901618 10.2838505793181767 0.0 1 0.696013 1
291 1 2.1022546876342445 12.7565710658681422 0.0 1 0.696013 1
292 1 -9.3584976958878965 -8.5768083580168089 0.0 1 0.696013 1
293 1 -11.4830448032299159 -9.3910085093194589 0.0 1 0.696013 1
294 1 18.3143296732083627 16.8595648989639812 0.0 1 0.696013 1
295 1 -13.2753143217145144 18.7782164883617320 0.0 1 0.696013 1
296 1 13.1108926919592079 -15.4240478760871635 0.0 1 0.696013 1
297 1 12.1596653817363887 13.7572505244816394 0.0 1 0.696013 1
298 1 4.4312762184905443 -2.5146126463472820 0.0 1 0.696013 1
299 1 13.5714323980574871 -10.4013012231685735 0.0 1 0.696013 1
300 1 16.6517048413145865 -13.9232320366366444 0.0 1 0.696013 1
301 1 -2.9065798562662364 18.6946954212901169 0.0 1 0.696013 1
302 1 6.4682573890850383 4.1450933176868707 0.0 1 0.696013 1
303 1 -12.5438226896508240 -8.4773672646075120 0.0 1 0.696013 1
304 1 -4.4759468539030545 9.7756292180718152 0.0 1 0.696013 1
305 1 15.2204773945504783 -13.6117879245580404 0.0 1 0.696013 1
306 1 9.2954802673712855 9.7208979031483604 0.0 1 0.696013 1
307 1 12.7043979872219612 0.0298813203585722 0.0 1 0.696013 1
308 1 -7.2328653572214829 -17.5511938202988489 0.0 1 0.696013 1
309 1 14.2725883238315028 -14.6427311404841767 0.0 1 0.696013 1
310 1 -4.9292348755885556 12.1577496751182164 0.0 1 0.696013 1
311 1 18.0600840996356311 6.4878182235053750 0.0 1 0.696013 1
312 1 16.9983086804388357 5.5753350543114522 0.0 1 0.696013 1
313 1 -7.4931893512195238 5.0477148518369637 0.0 1 0.696013 1
314 1 14.4343677729494484 -4.7627749389560501 0.0 1 0.696013 1
315 1 15.2804797062470623 2.3091669983860075 0.0 1 0.696013 1
316 1 16.6558574391021388 -3.9990881509167355 0.0 1 0.696013 1
317 1 0.4396987535244076 4.6386873768654704 0.0 1 0.696013 1
318 1 4.4371381538898289 -15.2604116244759922 0.0 1 0.696013 1
319 1 11.5761937202896430 10.2674024106150199 0.0 1 0.696013 1
320 1 -2.9247398020844115 -17.3288297405483434 0.0 1 0.696013 1
321 1 1.2862281613078037 -12.6087579947811772 0.0 1 0.696013 1
322 1 8.2976180747718313 2.2832858459711685 0.0 1 0.696013 1
323 1 13.7923035926662916 3.9576651492791433 0.0 1 0.696013 1
324 1 1.6601637938008795 -11.2596209470425119 0.0 1 0.696013 1
325 1 7.8955806533819688 9.7044907024179388 0.0 1 0.696013 1
326 1 16.9990892751465523 -15.2794485734059755 0.0 1 0.696013 1
327 1 4.8088558037334215 12.6727779821964113 0.0 1 0.696013 1
328 1 9.1026973266831650 -0.7192485078832209 0.0 1 0.696013 1
329 1 -14.6917142792312081 16.7893373921181777 0.0 1 0.696013 1
330 1 -13.2971502499704926 -0.4358411499800129 0.0 1 0.696013 1
331 1 4.8231573033553143 16.5933908418908302 0.0 1 0.696013 1
332 1 1.3471898179397281 11.3848919827222446 0.0 1 0.696013 1
333 1 -18.5187067664705793 -3.7922553751927239 0.0 1 0.696013 1
334 1 -2.6813511087738777 10.6714610118091038 0.0 1 0.696013 1
335 1 16.0317890707072124 -16.2915348281268635 0.0 1 0.696013 1
336 1 -9.3670262724854645 9.0656584478812494 0.0 1 0.696013 1
337 1 -8.2807556582184692 16.6837692105155675 0.0 1 0.696013 1
338 1 -1.1392455380501758 -2.6568350667056362 0.0 1 0.696013 1
339 1 17.4094949054029584 15.7912665942014847 0.0 1 0.696013 1
340 1 9.7020117525861913 -8.9108989317441907 0.0 1 0.696013 1
341 1 14.0514039962663713 7.6281528699483339 0.0 1 0.696013 1
342 1 -16.1076532893307736 3.3304356556345862 0.0 1 0.696013 1
343 1 7.7072929848732983 -0.6059435825489876 0.0 1 0.696013 1
344 1 18.0158149637178830 18.2273673407814947 0.0 1 0.696013 1
345 1 -8.3353335416894918 3.9203708878694719 0.0 1 0.696013 1
346 1 -1.8906488280582960 -5.3499467266626279 0.0 1 0.696013 1
347 1 -15.8222531345460400 17.6150971003591224 0.0 1 0.696013 1
348 1 8.3013077299105440 -6.9158281288517021 0.0 1 0.696013 1
349 1 -12.9069002860597202 -11.5788242643782038 0.0 1 0.696013 1
350 1 9.9953766568948179 6.5885267051301222 0.0 1 0.696013 1
351 1 15.8659082216623766 18.5986903939225563 0.0 1 0.696013 1
352 1 -15.6177237360718379 6.9291871042350426 0.0 1 0.696013 1
353 1 -1.5872116252738981 -3.9832274352535064 0.0 1 0.696013 1
354 1 -15.6880803812688612 -18.5382087642655300 0.0 1 0.696013 1
355 1 -7.4578081718878719 13.3429106073326960 0.0 1 0.696013 1
356 1 10.6333678830697824 -3.8244389731204658 0.0 1 0.696013 1
357 1 11.3634077164583456 -11.2211698447031001 0.0 1 0.696013 1
358 1 6.8087221294709925 -12.4358032837910031 0.0 1 0.696013 1
359 1 12.9738501064639298 10.3483324720792265 0.0 1 0.696013 1
360 1 13.0972764552701335 12.7175970140433900 0.0 1 0.696013 1
361 1 -14.5515358783154340 18.2026821499448559 0.0 1 0.696013 1
362 1 -16.9587985961160861 18.4325610493836223 0.0 1 0.696013 1
363 1 -11.2576912886010572 -0.4316368518196997 0.0 1 0.696013 1
364 1 -13.4209926697679442 17.3769293806134684 0.0 1 0.696013 1
365 1 -2.5807706104197110 -15.9643110339508620 0.0 1 0.696013 1
366 1 8.7706847328627386 4.6263211664032147 0.0 1 0.696013 1
367 1 -11.2198676020838626 -17.6409857753279340 0.0 1 0.696013 1
368 1 13.7748633225150368 15.9151008111450594 0.0 1 0.696013 1
369 1 -13.1094124354193653 13.7459752207788188 0.0 1 0.696013 1
370 1 -11.7255790386281795 -14.0628760248400262 0.0 1 0.696013 1
371 1 -18.4386461761183433 0.8496610431199160 0.0 1 0.696013 1
372 1 -2.5119197877193140 -2.9320828614498682 0.0 1 0.696013 1
373 1 -3.1060041197781563 1.5597921577036038 0.0 1 0.696013 1
374 1 -9.9271261383067309 7.7825833458698339 0.0 1 0.696013 1
375 1 -0.9857260990223865 -12.7697772677764760 0.0 1 0.696013 1
376 1 14.0922097745858110 0.2343469840900641 0.0 1 0.696013 1
377 1 -11.0245402999126316 4.5257865188910902 0.0 1 0.696013 1
378 1 16.3644319748556910 -17.6514421089060853 0.0 1 0.696013 1
379 1 16.6625555135130021 2.0858659236719048 0.0 1 0.696013 1
380 1 14.0260308639544409 -17.4272316284035611 0.0 1 0.696013 1
381 1 -15.7253183572539399 13.2420480540293930 0.0 1 0.696013 1
382 1 10.5816642422374105 18.1958124158269143 0.0 1 0.696013 1
383 1 10.7662878269795925 13.6212626532346412 0.0 1 0.696013 1
384 1 18.0571478157924012 1.9629632429349124 0.0 1 0.696013 1
385 1 3.4201077433364113 6.3985356246511529 0.0 1 0.696013 1
386 1 -10.0988014857224560 -14.3040103099838891 0.0 1 0.696013 1
387 1 -5.8512660382384993 9.5139236346100287 0.0 1 0.696013 1
388 1 13.5100369321237412 17.4014051664169216 0.0 1 0.696013 1
389 1 16.6811593597684897 8.3655308981992569 0.0 1 0.696013 1
390 1 -5.2504800840854973 18.7148117340682454 0.0 1 0.696013 1
391 1 2.7892656633665607 9.1242665040776618 0.0 1 0.696013 1
392 1 3.4297788852374964 -16.2326359837569427 0.0 1 0.696013 1
393 1 -7.3948736034318703 -3.7273093021689023 0.0 1 0.696013 1
394 1 -9.3313406540841797 10.4652025418906387 0.0 1 0.696013 1
395 1 -9.5819482012841366 6.4258056565016561 0.0 1 0.696013 1
396 1 -13.2054741346149509 0.9611503861877229 0.0 1 0.696013 1
397 1 17.3799965065639945 -16.6688070471530700 0.0 1 0.696013 1
398 1 6.5166800295306340 -9.5260931452148281 0.0 1 0.696013 1
399 1 -1.3843598534264319 -7.5936719732380151 0.0 1 0.696013 1
400 1 -1.4594989837728722 -9.9898242536326727 0.0 1 0.696013 1
401 1 -0.7311102759143885 12.5471557202967556 0.0 1 0.696013 1
402 1 3.7376310989446035 -6.9876478908733564 0.0 1 0.696013 1
403 1 -9.1423200315741813 -10.7392909859964245 0.0 1 0.696013 1
404 1 15.6389466049417134 -14.9477819954059683 0.0 1 0.696013 1
405 1 2.8234515415963175 -4.3223763578342460 0.0 1 0.696013 1
406 1 -0.1211302107051068 -9.5790334571974558 0.0 1 0.696013 1
407 1 -14.3291895131029943 -4.6957569843627640 0.0 1 0.696013 1
408 1 14.9998277879307569 13.9572434189868755 0.0 1 0.696013 1
409 1 17.0110857163558364 9.7260970996191602 0.0 1 0.696013 1
410 1 9.5911093046043678 -7.5153007376364318 0.0 1 0.696013 1
411 1 -8.0249337869273916 -18.7055815999806150 0.0 1 0.696013 1
412 1 -14.1039934499693000 -14.0131568129909496 0.0 1 0.696013 1
413 1 5.4619630419926297 -12.0533975281887908 0.0 1 0.696013 1
414 1 -0.9598903795314678 4.6724953602268364 0.0 1 0.696013 1
415 1 -2.8329549950408923 14.1168340358286848 0.0 1 0.696013 1
416 1 11.5239476837137218 4.1212549357568493 0.0 1 0.696013 1
417 1 -9.7528159670689796 3.9403677325938289 0.0 1 0.696013 1
418 1 17.4662891594425673 3.2321680576642255 0.0 1 0.696013 1
419 1 8.6308343375461671 10.9682776947033851 0.0 1 0.696013 1
420 1 -12.2754402978058295 -1.3929704376729692 0.0 1 0.696013 1
421 1 7.0276258951065875 8.6060176342681096 0.0 1 0.696013 1
422 1 1.1776105081142345 3.4489538225245724 0.0 1 0.696013 1
423 1 -16.5676370287767156 -0.6894364648509596 0.0 1 0.696013 1
424 1 -10.0451101888548529 0.2680991968696125 0.0 1 0.696013 1
425 1 16.3668391511343110 13.6551243069283998 0.0 1 0.696013 1
426 1 3.3591163168032501 1.0555123798544406 0.0 1 0.696013 1
427 1 -12.2940127626719100 -2.7928398933089862 0.0 1 0.696013 1
428 1 2.2452726966337098 -16.9789186258029545 0.0 1 0.696013 1
429 1 14.8976021334299062 17.5875675430363181 0.0 1 0.696013 1
430 1 -5.8006448571683356 -15.1537445730039906 0.0 1 0.696013 1
431 1 18.3472957518785513 -15.6567150281951584 0.0 1 0.696013 1
432 1 -12.5811559428082163 3.3946925211488757 0.0 1 0.696013 1
433 1 -9.8201877175921055 -17.6709038637085740 0.0 1 0.696013 1
434 1 -13.8166200421588190 -12.6429695391078685 0.0 1 0.696013 1
435 1 4.8640197796384896 11.2652531914798733 0.0 1 0.696013 1
436 1 -4.0149323919682205 11.0975439864140331 0.0 1 0.696013 1
437 1 11.3733892490069906 6.8356680846632782 0.0 1 0.696013 1
438 1 -3.5977179305250488 -8.6315675586959628 0.0 1 0.696013 1
439 1 17.9849831482779550 -17.9313397857756840 0.0 1 0.696013 1
440 1 -10.6143342361364290 -5.0274268819505545 0.0 1 0.696013 1
441 1 10.4164298460291729 15.4752861140296201 0.0 1 0.696013 1
442 1 4.0614936839532270 -12.2379451024051491 0.0 1 0.696013 1
443 1 -7.0387648636404281 -1.3645536607333748 0.0 1 0.696013 1
444 1 -10.1424974713829137 -3.6955538386811644 0.0 1 0.696013 1
445 1 3.7342325291424769 -5.5876542406168062 0.0 1 0.696013 1
446 1 -18.5049995476728668 -11.3846939475906570 0.0 1 0.696013 1
447 1 2.4850755535002476 -9.0899555849603342 0.0 1 0.696013 1
448 1 10.0297373612415086 10.9128965534689293 0.0 1 0.696013 1
449 1 6.7388658058252373 13.8863181552086061 0.0 1 0.696013 1
450 1 -9.6796693387431745 16.7388414923687350 0.0 1 0.696013 1
451 1 -5.0028307122390085 -11.0145606168749879 0.0 1 0.696013 1
452 1 0.8653645963015235 -14.0494932674940873 0.0 1 0.696013 1
453 1 -15.7700890273683960 -7.2307125490228659 0.0 1 0.696013 1
454 1 2.5751678338566344 14.0742772950391064 0.0 1 0.696013 1
455 1 13.1151018255774563 -4.2942326168420974 0.0 1 0.696013 1
456 1 -17.7184008893812077 15.2884877389819049 0.0 1 0.696013 1
457 1 -3.8223220575731700 13.0149153987349333 0.0 1 0.696013 1
458 1 6.6218011536853787 -11.0483397141286801 0.0 1 0.696013 1
459 1 -14.7959981593198258 2.8409957464179652 0.0 1 0.696013 1
460 1 1.3369420796088791 9.1684924800073251 0.0 1 0.696013 1
461 1 16.5364669120997299 -5.3939848588880057 0.0 1 0.696013 1
462 1 -0.1073473782995225 -3.6029768620696152 0.0 1 0.696013 1
463 1 -0.4072075438579075 -0.6809384349890474 0.0 1 0.696013 1
464 1 -4.7334958544642181 -7.7974337139382142 0.0 1 0.696013 1
465 1 6.1201645551963093 18.4615388309488964 0.0 1 0.696013 1
466 1 -14.6136727675237328 0.0403503878947238 0.0 1 0.696013 1
467 1 16.6397718867559661 -8.3592922199025335 0.0 1 0.696013 1
468 1 -9.9486094040368407 -11.8837975729293568 0.0 1 0.696013 1
469 1 1.4393138752539676 -3.7827261851595573 0.0 1 0.696013 1
470 1 -1.7706534557586890 1.1392850682230433 0.0 1 0.696013 1
471 1 -1.7448543848326723 -18.0823998723235171 0.0 1 0.696013 1